HEADER
"PSFversion" "1.00"
"design" "(\"Design\" \"XOR_schematic\" \"schematic\" \"\")"
"simulator" "spectre"
"temperature" "27"
"host" ""
"date" "Mar  1 22:55:30 2023"
"title" ""
"analysisList" "()"
END
