HEADER
"PSFversion" "1.00"
"Time Stamp" "Mar  1 22:55:30 2023"
TYPE
"variable" STRUCT(
"value" FLOAT DOUBLE
) PROP( "key" "element" )
VALUE
"temp" "variable" ( 27 ) PROP( )
END
