HEADER
"PSFversion" "1.00"
"Run Generator" "drlRun rev. 1.0"
"Run Time Stamp" "Mar 23 13:00:31 2023"
"date" "Mar 23 13:00:31 2023"
"simulator" "spectre"
"netlistDir" "../netlist"
TYPE
"runObject" STRUCT(
"logName" ARRAY( * ) STRING *
"parent" STRING *
"sweepVariable" ARRAY( * ) STRING *
) PROP( "key" "runObject" )
VALUE
"Root" "runObject" (
("")
""
("delay")
)
"delay=9.7e-09/psf" "runObject" (
(
"../delay=9.7e-09/psf/logFile"
"../delay=9.7e-09/psf/artistLogFile"
)
"Root"
()
) PROP(
"netlistDir" "../netlist"
"dataDir" "../delay=9.7e-09"
 "delay" 9.700000e-09
)

"delay=9.71e-09/psf" "runObject" (
(
"../delay=9.71e-09/psf/logFile"
"../delay=9.71e-09/psf/artistLogFile"
)
"Root"
()
) PROP(
"netlistDir" "../netlist"
"dataDir" "../delay=9.71e-09"
 "delay" 9.710000e-09
)

"delay=9.72e-09/psf" "runObject" (
(
"../delay=9.72e-09/psf/logFile"
"../delay=9.72e-09/psf/artistLogFile"
)
"Root"
()
) PROP(
"netlistDir" "../netlist"
"dataDir" "../delay=9.72e-09"
 "delay" 9.720000e-09
)

"delay=9.73e-09/psf" "runObject" (
(
"../delay=9.73e-09/psf/logFile"
"../delay=9.73e-09/psf/artistLogFile"
)
"Root"
()
) PROP(
"netlistDir" "../netlist"
"dataDir" "../delay=9.73e-09"
 "delay" 9.730000e-09
)

"delay=9.74e-09/psf" "runObject" (
(
"../delay=9.74e-09/psf/logFile"
"../delay=9.74e-09/psf/artistLogFile"
)
"Root"
()
) PROP(
"netlistDir" "../netlist"
"dataDir" "../delay=9.74e-09"
 "delay" 9.740000e-09
)

"delay=9.75e-09/psf" "runObject" (
(
"../delay=9.75e-09/psf/logFile"
"../delay=9.75e-09/psf/artistLogFile"
)
"Root"
()
) PROP(
"netlistDir" "../netlist"
"dataDir" "../delay=9.75e-09"
 "delay" 9.750000e-09
)

"delay=9.76e-09/psf" "runObject" (
(
"../delay=9.76e-09/psf/logFile"
"../delay=9.76e-09/psf/artistLogFile"
)
"Root"
()
) PROP(
"netlistDir" "../netlist"
"dataDir" "../delay=9.76e-09"
 "delay" 9.760000e-09
)

"delay=9.77e-09/psf" "runObject" (
(
"../delay=9.77e-09/psf/logFile"
"../delay=9.77e-09/psf/artistLogFile"
)
"Root"
()
) PROP(
"netlistDir" "../netlist"
"dataDir" "../delay=9.77e-09"
 "delay" 9.770000e-09
)

"delay=9.78e-09/psf" "runObject" (
(
"../delay=9.78e-09/psf/logFile"
"../delay=9.78e-09/psf/artistLogFile"
)
"Root"
()
) PROP(
"netlistDir" "../netlist"
"dataDir" "../delay=9.78e-09"
 "delay" 9.780000e-09
)

"delay=9.79e-09/psf" "runObject" (
(
"../delay=9.79e-09/psf/logFile"
"../delay=9.79e-09/psf/artistLogFile"
)
"Root"
()
) PROP(
"netlistDir" "../netlist"
"dataDir" "../delay=9.79e-09"
 "delay" 9.790000e-09
)

"delay=9.8e-09/psf" "runObject" (
(
"../delay=9.8e-09/psf/logFile"
"../delay=9.8e-09/psf/artistLogFile"
)
"Root"
()
) PROP(
"netlistDir" "../netlist"
"dataDir" "../delay=9.8e-09"
 "delay" 9.800000e-09
)

END
