HEADER
"PSFversion" "1.00"
"design" "(\"Design\" \"singlebitadder_schematic\" \"schematic\" \"\")"
"simulator" "spectre"
"temperature" "27"
"host" ""
"date" "Mar  3 00:06:55 2023"
"title" ""
"analysisList" "()"
END
