HEADER
"PSFversion" "1.00"
"design" "(\"Design\" \"4bitAdder_simulation\" \"schematic\" \"\")"
"simulator" "spectre"
"temperature" "27"
"host" ""
"date" "Mar  8 23:10:11 2023"
"title" ""
"analysisList" "()"
END
