HEADER
"PSFversion" "1.00"
"Time Stamp" "Mar  8 23:10:11 2023"
TYPE
"variable" STRUCT(
"value" FLOAT DOUBLE
) PROP( "key" "element" )
VALUE
"temp" "variable" ( 27 ) PROP( )
END
