HEADER
"PSFversion" "1.00"
"I0n" "XOR"
"C0n" "NCSU_Analog_Parts_cap_spectre"
"V2n V3n" "NCSU_Analog_Parts_vpulse_spectre"
"V1n" "NCSU_Analog_Parts_vdc_spectre"
