HEADER
"PSFversion" "1.00"
"N71n N70n N69n N68n N67n N66n N65n N64n N63n N62n N61n N60n N59n N58n N57n N56n N55n N54n N53n N52n N51n N50n N49n N48n N47n N46n N45n N44n N43n N42n N41n N40n N39n N38n N37n N36n N35n N34n N33n N32n N31n N30n N29n N28n N27n N26n N25n N24n N23n N22n N21n N20n N19n N18n N17n N16n N15n N14n N13n N12n N11n N10n N7n N6n N9n N5n N4n N3n N2n N8n N0n N1n" "NCSU_Analog_Parts_nmos4_spectre"
"P71n P70n P69n P68n P67n P66n P65n P64n P63n P62n P61n P60n P59n P58n P57n P56n P55n P54n P53n P52n P51n P50n P49n P48n P47n P46n P45n P44n P43n P42n P41n P40n P39n P38n P37n P36n P35n P34n P33n P32n P31n P30n P29n P28n P27n P26n P25n P24n P23n P22n P21n P20n P19n P18n P17n P16n P15n P14n P13n P12n P11n P10n P6n P7n P5n P4n P3n P2n P8n P1n P0n P9n" "NCSU_Analog_Parts_pmos4_spectre"
"A0v" ":1v"
"A1v" ":2v"
"A2v" ":3v"
"A3v" ":4v"
"B0v" ":5v"
"B1v" ":6v"
"B2v" ":7v"
"B3v" ":8v"
"Cinv" ":9v"
"Coutv" ":10v"
"GNDv" ":11v"
"Sum0v" ":12v"
"Sum1v" ":13v"
"Sum2v" ":14v"
"Sum3v" ":15v"
"VDDv" ":16v"
