HEADER
"PSFversion" "1.00"
"I0n" "lab9"
"V16n V15n V14n V13n V12n V11n V10n V9n V8n" "NCSU_Analog_Parts_vpulse_spectre"
"V2n" "NCSU_Analog_Parts_vdc_spectre"
"C4n C3n C2n C1n C0n" "NCSU_Analog_Parts_cap_spectre"
