HEADER
"PSFversion" "1.00"
"__NEXT_FILE__" "lab9_Sim"
