HEADER
"PSFversion" "1.00"
"design" "(\"Design\" \"lab9_Sim\" \"schematic\" \"\")"
"simulator" "spectre"
"temperature" "27"
"host" ""
"date" "Apr 12 18:30:27 2023"
"title" ""
"analysisList" "()"
END
