HEADER
"PSFversion" "1.00"
"simulator" "spectre"
"version" "18.1.0.421.isr9"
"date" "6:30:30 PM, Wed Apr 12, 2023"
"design" "// Generated for: spectre"
"analysis type" "info.subckts"
"analysis name" "subckts"
"analysis description" "Circuit Information"
"xVecSorted" "unknown"
"tolerance.relative" 0.00100000
TYPE
"subckt" STRUCT(
"subckt_params" STRING *
"subckt_terminals" STRING *
"subckt_instances" STRING *
) PROP(
"key" "sub"
)
VALUE
"lab9" "subckt" (
""
"A0 A1 A2 A3 B0 B1 B2 B3 Cin Cout GND Sum0 Sum1 Sum2 Sum3 VDD"
"I0"
)
END
