HEADER
"PSFversion" "1.00"
"Time Stamp" "Apr 12 18:30:27 2023"
TYPE
"variable" STRUCT(
"value" FLOAT DOUBLE
) PROP( "key" "element" )
VALUE
"temp" "variable" ( 27 ) PROP( )
END
