HEADER
"PSFversion" "1.00"
"I3n I2n I1n I0n" "singlebitadder"
"A<3>v" ":1v"
"A<2>v" ":2v"
"A<1>v" ":3v"
"A<0>v" ":4v"
"B<3>v" ":5v"
"B<2>v" ":6v"
"B<1>v" ":7v"
"B<0>v" ":8v"
"Cinv" ":9v"
"Coutv" ":10v"
"GNDv" ":11v"
"Sum<3>v" ":12v"
"Sum<2>v" ":13v"
"Sum<1>v" ":14v"
"Sum<0>v" ":15v"
"VDDv" ":16v"
