HEADER
"PSFversion" "1.00"
"__NEXT_FILE__" "Design_4bitAdder_simulation_schematic"
