HEADER
"PSFversion" "1.00"
"design" "(\"Design\" \"DFFSimulatedAC\" \"schematic\" \"\")"
"simulator" "spectre"
"temperature" "27"
"host" ""
"date" "Mar 23 13:07:04 2023"
"title" ""
"analysisList" "()"
END
