HEADER
"PSFversion" "1.00"
"I3n" "NAND_extracted"
"V0n" "NCSU_Analog_Parts_vdc_spectre"
"C0n" "NCSU_Analog_Parts_cap_spectre"
"V4n V3n" "NCSU_Analog_Parts_vpulse_spectre"
