HEADER
"PSFversion" "1.00"
"Time Stamp" "Mar 23 13:00:37 2023"
TYPE
"variable" STRUCT(
"value" FLOAT DOUBLE
) PROP( "key" "element" )
VALUE
"delay" "variable" ( 9.73e-9 ) PROP( )
"temp" "variable" ( 27 ) PROP( )
END
