HEADER
"PSFversion" "1.00"
"design" "(\"Design\" \"DFFSimulated\" \"schematic\" \"\")"
"simulator" "spectre"
"temperature" "27"
"host" ""
"date" "Mar 23 13:00:33 2023"
"title" ""
"analysisList" "()"
END
