HEADER
"PSFversion" "1.00"
"design" "(\"Design\" \"NAND_schematic\" \"schematic\" \"\")"
"simulator" "spectre"
"temperature" "27"
"host" ""
"date" "Feb 28 22:09:22 2023"
"title" ""
"analysisList" "()"
END
