HEADER
"PSFversion" "1.00"
"simulator" "spectre"
"version" "18.1.0.421.isr9"
"date" "10:09:26 PM, Tue Feb 28, 2023"
"design" "// Generated for: spectre"
"analysis type" "info.subckts"
"analysis name" "subckts"
"analysis description" "Circuit Information"
"xVecSorted" "unknown"
"tolerance.relative" 0.00100000
TYPE
"subckt" STRUCT(
"subckt_params" STRING *
"subckt_terminals" STRING *
"subckt_instances" STRING *
) PROP(
"key" "sub"
)
VALUE
"NAND_extracted" "subckt" (
""
"A B GND VDD Y"
"I3"
)
END
