HEADER
"PSFversion" "1.00"
"Time Stamp" "Feb 28 22:09:22 2023"
TYPE
"variable" STRUCT(
"value" FLOAT DOUBLE
) PROP( "key" "element" )
VALUE
"temp" "variable" ( 27 ) PROP( )
END
