HEADER
"PSFversion" "1.00"
"design" "(\"Design\" \"NAND_schematic\" \"schematic\" \"\")"
"simulator" "hspiceD"
"temperature" "25.0"
"host" ""
"date" "Feb 24 13:47:49 2023"
"title" ""
"analysisList" "()"
END
