HEADER
"PSFversion" "1.00"
"Time Stamp" "Feb 24 13:47:49 2023"
TYPE
"variable" STRUCT(
"value" FLOAT DOUBLE
) PROP( "key" "element" )
VALUE
"TEMPDC" "variable" ( 25.0 ) PROP( )
END
