HEADER
"PSFversion" "1.00"
"design" "(\"Design\" \"inverter_schematic\" \"schematic\" \"\")"
"simulator" "spectre"
"temperature" "27"
"host" ""
"date" "Feb 24 13:16:10 2023"
"title" ""
"analysisList" "()"
END
