HEADER
"PSFversion" "1.00"
"Time Stamp" "Feb 24 13:16:10 2023"
TYPE
"variable" STRUCT(
"value" FLOAT DOUBLE
) PROP( "key" "element" )
VALUE
"temp" "variable" ( 27 ) PROP( )
END
